 Gaussian 16, Revision A.03,
 Gaussian 16:  EM64M-G16RevA.03 25-Dec-2016

 --------------
 #t hf/3-21g sp
 --------------
 -----------
 benzene 1e-
 -----------
 Symbolic Z-matrix:
 Charge =  1 Multiplicity = 2

                         Standard orientation:
 ---------------------------------------------------------------------
 Center     Atomic      Atomic             Coordinates (Angstroms)
 Number     Number       Type             X           Y           Z
 ---------------------------------------------------------------------
      1          6           0        0.750796    1.163404    0.000003
      2          6           0        1.382851   -0.068337   -0.000069
      3          6           0       -0.632437    1.231802    0.000032
      4          6           0        0.632402   -1.231608    0.000046
      5          6           0       -0.750675   -1.163488    0.000049
      6          6           0       -1.382950    0.068308   -0.000078
      7          1           0        1.332035    2.064290    0.000311
      8          1           0       -1.121912    2.185613    0.000140
      9          1           0       -1.331845   -2.064442    0.000429
     10          1           0       -2.453781    0.121055   -0.000423
     11          1           0        2.453671   -0.121588   -0.000180
     12          1           0        1.121907   -2.185412   -0.000181
 ---------------------------------------------------------------------

 SCF Done:  E(UHF) =  -229.120430313     A.U. after   22 cycles

 The electronic state is 2-A.
 Alpha  occ. eigenvalues --  -11.44430 -11.44421 -11.44401 -11.44371 -11.39132
 Alpha  occ. eigenvalues --  -11.39111  -1.42118  -1.29444  -1.24942  -1.07400
 Alpha  occ. eigenvalues --   -1.06748  -0.95728  -0.87477  -0.86904  -0.84542
 Alpha  occ. eigenvalues --   -0.81388  -0.76998  -0.72875  -0.72397  -0.63357
 Alpha  occ. eigenvalues --   -0.55931
 Alpha virt. eigenvalues --   -0.13001  -0.06245   0.06090   0.12170   0.13186
 Alpha virt. eigenvalues --    0.13754   0.16538   0.18378   0.19003   0.27774
 Alpha virt. eigenvalues --    0.28594   0.29506   0.30355   0.58982   0.59109

  Beta  occ. eigenvalues --  -11.43598 -11.43588 -11.43553 -11.43525 -11.39833
  Beta  occ. eigenvalues --  -11.39813  -1.39431  -1.25278  -1.23771  -1.06096
  Beta  occ. eigenvalues --   -1.05026  -0.95243  -0.86778  -0.86148  -0.83436
  Beta  occ. eigenvalues --   -0.81646  -0.72663  -0.71978  -0.68482  -0.57877
  Beta virt. eigenvalues --   -0.26023  -0.04507  -0.01818   0.06415   0.12661
  Beta virt. eigenvalues --    0.13796   0.17131   0.17835   0.18289   0.19364
  Beta virt. eigenvalues --    0.28684   0.28934   0.30097   0.30748   0.59298

 Mulliken charges and spin densities:
               1          2
     1  C   -0.150915   0.486175
     2  C   -0.249674  -0.426286
     3  C   -0.151045   0.485992
     4  C   -0.151003   0.485249
     5  C   -0.151002   0.486342
     6  C   -0.249594  -0.426942
     7  H    0.357895  -0.033689
     8  H    0.357871  -0.033679
     9  H    0.357883  -0.033697
    10  H    0.335851   0.022108
    11  H    0.335864   0.022063
    12  H    0.357868  -0.033634
 Sum of Mulliken charges =   1.00000   1.00000

 Dipole moment (field-independent basis, Debye):
    X=              0.0002    Y=              0.0003    Z=              0.0002  Tot=              0.0004
                          Isotropic Fermi Contact Couplings
        Atom                 a.u.       MegaHertz       Gauss      10(-4) cm-1
     1  C(13)              0.07119      80.03102      28.55706      26.69548
     2  C(13)             -0.07522     -84.56462     -30.17476     -28.20772
     3  C(13)              0.07118      80.01909      28.55280      26.69150
     4  C(13)              0.07104      79.86659      28.49839      26.64063
     5  C(13)              0.07124      80.08494      28.57630      26.71346
     6  C(13)             -0.07535     -84.70867     -30.22616     -28.25577
     7  H(1)              -0.01041     -46.52383     -16.60086     -15.51868
     8  H(1)              -0.01041     -46.50937     -16.59570     -15.51386

 Normal termination of Gaussian 16 at Mon Jun 17 23:47:10 2019.
