 Gaussian 16, Revision A.03,
 Gaussian 16:  EM64M-G16RevA.03 25-Dec-2016

 ---------------
 #t hf/3-21g opt
 ---------------
 -------
 benzene
 -------
 Symbolic Z-matrix:
 Charge =  0 Multiplicity = 1

 SCF Done:  E(RHF) =  -228.324124346     A.U. after   18 cycles
 SCF Done:  E(RHF) =  -228.653524234     A.U. after   17 cycles
 SCF Done:  E(RHF) =  -229.013566130     A.U. after   18 cycles
 SCF Done:  E(RHF) =  -229.107772182     A.U. after   18 cycles
 SCF Done:  E(RHF) =  -229.209955778     A.U. after   17 cycles
 SCF Done:  E(RHF) =  -229.344254031     A.U. after   16 cycles
 SCF Done:  E(RHF) =  -229.381091447     A.U. after   13 cycles
 SCF Done:  E(RHF) =  -229.414726544     A.U. after   14 cycles
 SCF Done:  E(RHF) =  -229.417838280     A.U. after   12 cycles
 SCF Done:  E(RHF) =  -229.418781416     A.U. after   11 cycles
 SCF Done:  E(RHF) =  -229.419156012     A.U. after   11 cycles
 SCF Done:  E(RHF) =  -229.419296710     A.U. after   10 cycles
 SCF Done:  E(RHF) =  -229.419380248     A.U. after   10 cycles
 SCF Done:  E(RHF) =  -229.419420389     A.U. after   10 cycles
 SCF Done:  E(RHF) =  -229.419441681     A.U. after   10 cycles
 SCF Done:  E(RHF) =  -229.419444373     A.U. after    9 cycles
 SCF Done:  E(RHF) =  -229.419445216     A.U. after    9 cycles
 Optimization completed.
    -- Stationary point found.

                         Standard orientation:
 ---------------------------------------------------------------------
 Center     Atomic      Atomic             Coordinates (Angstroms)
 Number     Number       Type             X           Y           Z
 ---------------------------------------------------------------------
      1          6           0       -0.750662    1.163491   -0.000003
      2          6           0       -1.382859   -0.068177    0.000069
      3          6           0        0.632579    1.231729   -0.000032
      4          6           0       -0.632544   -1.231535   -0.000046
      5          6           0        0.750541   -1.163575   -0.000049
      6          6           0        1.382958    0.068148    0.000078
      7          1           0       -1.331797    2.064444   -0.000311
      8          1           0        1.122164    2.185484   -0.000140
      9          1           0        1.331607   -2.064596   -0.000429
     10          1           0        2.453795    0.120772    0.000423
     11          1           0       -2.453685   -0.121305    0.000180
     12          1           0       -1.122159   -2.185282    0.000181
 ---------------------------------------------------------------------

 The electronic state is 1-A.
 Alpha  occ. eigenvalues --  -11.17549 -11.17527 -11.17524 -11.17505 -11.17503
 Alpha  occ. eigenvalues --  -11.17447  -1.15737  -1.01657  -1.01645  -0.82568
 Alpha  occ. eigenvalues --   -0.82558  -0.71991  -0.63948  -0.62493  -0.59284
 Alpha  occ. eigenvalues --   -0.59276  -0.50847  -0.49151  -0.49136  -0.33905
 Alpha  occ. eigenvalues --   -0.33894
 Alpha virt. eigenvalues --    0.15118   0.15130   0.25737   0.32449   0.32453
 Alpha virt. eigenvalues --    0.37202   0.37205   0.37548   0.37566   0.50848
 Alpha virt. eigenvalues --    0.50861   0.52424   0.52438   0.81342   0.83513

 Mulliken charges:
               1
     1  C   -0.239284
     2  C   -0.239343
     3  C   -0.239320
     4  C   -0.239272
     5  C   -0.239320
     6  C   -0.239312
     7  H    0.239309
     8  H    0.239315
     9  H    0.239309
    10  H    0.239303
    11  H    0.239312
    12  H    0.239302
 Sum of Mulliken charges =  -0.00000

 Dipole moment (field-independent basis, Debye):
    X=              0.0000    Y=             -0.0002    Z=             -0.0001  Tot=              0.0002
 1\1\GINC-JORGES-MACBOOK-AIR\FOpt\RHF\3-21G\C6H6\JORGE\17-Jun-2019\0\\#
 t hf/3-21g opt\\benzene\\0,1\C,-1.9757183172,3.1251163471,-0.302742922
 5\C,-0.7002169502,3.6408310494,-0.148427659\C,-2.5226476808,2.32351870
 92,0.6853477134\C,0.0284907227,3.3554856984,0.9934731638\C,-0.51813562
 47,2.5539909036,1.9815767342\C,-1.7936862418,2.0379820132,1.8273077817
 \H,-2.540190201,3.3464553202,-1.1869452079\H,-3.5103791218,1.924190526
 3,0.5659014869\H,0.0461559971,2.3332566219,2.8660696332\H,-2.216779359
 3,1.4171518001,2.592176274\H,-0.2765239557,4.2613477317,-0.9132365217\
 H,1.0162707326,3.7547332791,1.1128395239\\Version=EM64M-G16RevA.03\Sta
 te=1-A\HF=-229.4194452\RMSD=4.732e-09\RMSF=1.174e-04\Dipole=0.0000345,

 Normal termination of Gaussian 16 at Mon Jun 17 23:47:05 2019.
