 Gaussian 16, Revision A.03,
 Gaussian 16:  EM64M-G16RevA.03 25-Dec-2016

 --------------
 #t hf/3-21g sp
 --------------
 -----------
 benzene 1e+
 -----------
 Symbolic Z-matrix:
 Charge = -1 Multiplicity = 2

                         Standard orientation:
 ---------------------------------------------------------------------
 Center     Atomic      Atomic             Coordinates (Angstroms)
 Number     Number       Type             X           Y           Z
 ---------------------------------------------------------------------
      1          6           0        0.750796    1.163404    0.000003
      2          6           0        1.382851   -0.068337   -0.000069
      3          6           0       -0.632437    1.231802    0.000032
      4          6           0        0.632402   -1.231608    0.000046
      5          6           0       -0.750675   -1.163488    0.000049
      6          6           0       -1.382950    0.068308   -0.000078
      7          1           0        1.332035    2.064290    0.000311
      8          1           0       -1.121912    2.185613    0.000140
      9          1           0       -1.331845   -2.064442    0.000429
     10          1           0       -2.453781    0.121055   -0.000423
     11          1           0        2.453671   -0.121588   -0.000180
     12          1           0        1.121907   -2.185412   -0.000181
 ---------------------------------------------------------------------

 SCF Done:  E(UHF) =  -229.301907477     A.U. after   25 cycles

 The electronic state is 2-A.
 Alpha  occ. eigenvalues --  -10.95412 -10.95394 -10.91619 -10.91615 -10.91573
 Alpha  occ. eigenvalues --  -10.91542  -0.92274  -0.78920  -0.78771  -0.61093
 Alpha  occ. eigenvalues --   -0.59454  -0.49163  -0.42644  -0.38646  -0.36797
 Alpha  occ. eigenvalues --   -0.35639  -0.30791  -0.26478  -0.26085  -0.17391
 Alpha  occ. eigenvalues --   -0.14424   0.08202
 Alpha virt. eigenvalues --    0.38549   0.44896   0.50986   0.52025   0.54490
 Alpha virt. eigenvalues --    0.55689   0.55772   0.56126   0.72058   0.72898
 Alpha virt. eigenvalues --    0.74002   0.74284   1.03029   1.05310   1.08906

  Beta  occ. eigenvalues --  -10.96074 -10.96055 -10.90683 -10.90675 -10.90649
  Beta  occ. eigenvalues --  -10.90619  -0.90741  -0.78677  -0.75358  -0.59557
  Beta  occ. eigenvalues --   -0.57693  -0.48644  -0.41561  -0.38095  -0.36796
  Beta  occ. eigenvalues --   -0.34843  -0.26376  -0.25914  -0.25888  -0.12616
  Beta  occ. eigenvalues --   -0.05908
  Beta virt. eigenvalues --    0.36904   0.42369   0.45064   0.50804   0.52614
  Beta virt. eigenvalues --    0.55988   0.56375   0.57424   0.62050   0.72892
  Beta virt. eigenvalues --    0.73722   0.74303   0.75085   1.03489   1.07300

 Mulliken charges and spin densities:
               1          2
     1  C   -0.325319   0.485405
     2  C   -0.204750  -0.399909
     3  C   -0.325189   0.484494
     4  C   -0.325153   0.483868
     5  C   -0.325307   0.485456
     6  C   -0.204766  -0.400405
     7  H    0.110315  -0.046125
     8  H    0.110378  -0.046038
     9  H    0.110331  -0.046119
    10  H    0.134545   0.022699
    11  H    0.134552   0.022662
    12  H    0.110364  -0.045987
 Sum of Mulliken charges =  -1.00000   1.00000

 Dipole moment (field-independent basis, Debye):
    X=             -0.0002    Y=             -0.0006    Z=             -0.0000  Tot=              0.0006
                          Isotropic Fermi Contact Couplings
        Atom                 a.u.       MegaHertz       Gauss      10(-4) cm-1
     1  C(13)              0.07990      89.82731      32.05262      29.96317
     2  C(13)             -0.07733     -86.93228     -31.01960     -28.99749
     3  C(13)              0.07973      89.63253      31.98312      29.89820
     4  C(13)              0.07961      89.49148      31.93279      29.85114
     5  C(13)              0.07992      89.84122      32.05758      29.96780
     6  C(13)             -0.07743     -87.04426     -31.05956     -29.03484
     7  H(1)              -0.01089     -48.67925     -17.36997     -16.23765
     8  H(1)              -0.01087     -48.59613     -17.34031     -16.20993

 Normal termination of Gaussian 16 at Mon Jun 17 23:47:08 2019.
