 Gaussian 16, Revision A.03,
 Gaussian 16:  EM64M-G16RevA.03 25-Dec-2016

 ---------------
 #t hf/3-21g opt
 ---------------
 -------
 fosfina
 -------
 Symbolic Z-matrix:
 Charge =  0 Multiplicity = 1

 SCF Done:  E(RHF) =  -340.688959885     A.U. after    9 cycles
 SCF Done:  E(RHF) =  -340.703584991     A.U. after   10 cycles
 SCF Done:  E(RHF) =  -340.704490672     A.U. after    9 cycles
 SCF Done:  E(RHF) =  -340.704518065     A.U. after    8 cycles
 SCF Done:  E(RHF) =  -340.704519296     A.U. after    7 cycles
 Optimization completed.
    -- Stationary point found.

                         Standard orientation:
 ---------------------------------------------------------------------
 Center     Atomic      Atomic             Coordinates (Angstroms)
 Number     Number       Type             X           Y           Z
 ---------------------------------------------------------------------
      1         15           0        0.000000   -0.000017    0.121577
      2          1           0        1.057749   -0.610765   -0.607935
      3          1           0       -1.057901   -0.610501   -0.607935
      4          1           0        0.000152    1.221516   -0.607786
 ---------------------------------------------------------------------

 The electronic state is 1-A.
 Alpha  occ. eigenvalues --  -79.38632  -7.46105  -5.34527  -5.34527  -5.34251
 Alpha  occ. eigenvalues --   -0.87578  -0.52730  -0.52728  -0.38061
 Alpha virt. eigenvalues --    0.18098   0.18099   0.26459   0.60382   0.60383
 Alpha virt. eigenvalues --    0.63276   0.70975   1.20671   1.26122   1.26123

 Mulliken charges:
               1
     1  P    0.089025
     2  H   -0.029676
     3  H   -0.029676
     4  H   -0.029674
 Sum of Mulliken charges =  -0.00000

 Dipole moment (field-independent basis, Debye):
    X=             -0.0000    Y=              0.0000    Z=             -1.2418  Tot=              1.2418
 1\1\GINC-JORGES-MACBOOK-AIR\FOpt\RHF\3-21G\H3P1\JORGE\17-Jun-2019\0\\#
 t hf/3-21g opt\\fosfina\\0,1\P,-0.8316730558,1.1792676049,-0.051494214
 3\H,0.5628318921,1.450589373,0.0244962298\H,-1.1645867911,2.3206172023
 ,-0.832854354\H,-1.16558204,1.7552858172,1.2058123411\\Version=EM64M-G
 16RevA.03\State=1-A\HF=-340.7045193\RMSD=2.477e-09\RMSF=9.909e-06\Dipo
 le=0.162475,0.4439712,0.1231757\Quadrupole=0.455274,-1.0065373,0.55126
 33,-0.6176455,-0.1713444,-0.4683564\PG=C01 [X(H3P1)]\\@

 LORD, MAN... WERE YE BUT WHYLES WHERE I AM,

 Normal termination of Gaussian 16 at Mon Jun 17 23:31:51 2019.
