 Gaussian 16, Revision A.03,
 Gaussian 16:  EM64M-G16RevA.03 25-Dec-2016

 --------------
 #t hf/3-21g sp
 --------------
 -----------
 fosfina 1e+
 -----------
 Symbolic Z-matrix:
 Charge = -1 Multiplicity = 2

                         Standard orientation:
 ---------------------------------------------------------------------
 Center     Atomic      Atomic             Coordinates (Angstroms)
 Number     Number       Type             X           Y           Z
 ---------------------------------------------------------------------
      1         15           0       -0.000000   -0.000017   -0.121577
      2          1           0       -1.061113   -0.604902    0.607935
      3          1           0        1.054507   -0.616345    0.607935
      4          1           0        0.006607    1.221498    0.607786
 ---------------------------------------------------------------------

 SCF Done:  E(UHF) =  -340.536129890     A.U. after   24 cycles

 The electronic state is 2-A.
 Alpha  occ. eigenvalues --  -79.10713  -7.17608  -5.06430  -5.06106  -5.05744
 Alpha  occ. eigenvalues --   -0.60387  -0.28941  -0.27271  -0.12951   0.15510
 Alpha virt. eigenvalues --    0.42098   0.49591   0.85333   0.85905   0.89202
 Alpha virt. eigenvalues --    0.95731   1.46340   1.51396   1.51616
  Beta  occ. eigenvalues --  -79.10583  -7.17464  -5.06090  -5.05886  -5.05464
  Beta  occ. eigenvalues --   -0.58114  -0.25427  -0.21718  -0.09219
  Beta virt. eigenvalues --    0.43581   0.46986   0.52882   0.86507   0.88315
  Beta virt. eigenvalues --    0.89602   0.97877   1.48063   1.52242   1.57324

 Mulliken charges and spin densities:
               1          2
     1  P   -0.353062   0.510917
     2  H   -0.168332   0.043259
     3  H   -0.168334   0.043263
     4  H   -0.310272   0.402560
 Sum of Mulliken charges =  -1.00000   1.00000

 Dipole moment (field-independent basis, Debye):
    X=             -0.0015    Y=             -0.2785    Z=              1.0532  Tot=              1.0894
                          Isotropic Fermi Contact Couplings
        Atom                 a.u.       MegaHertz       Gauss      10(-4) cm-1
     1  P(31)             -0.02012     -36.43426     -13.00065     -12.15316
     2  H(1)               0.00920      41.12866      14.67573      13.71905
     3  H(1)               0.00920      41.13198      14.67691      13.72015
     4  H(1)               0.07645     341.74365     121.94263     113.99341
 --------------------------------------------------------
       Center         ----  Spin Dipole Couplings  ----
                      3XX-RR        3YY-RR        3ZZ-RR
 --------------------------------------------------------

 Normal termination of Gaussian 16 at Mon Jun 17 23:31:52 2019.
