 Gaussian 16, Revision A.03,
 Gaussian 16:  EM64M-G16RevA.03 25-Dec-2016

 --------------
 #t hf/3-21g sp
 --------------
 -----------
 fosfina 1e-
 -----------
 Symbolic Z-matrix:
 Charge =  1 Multiplicity = 2

                         Standard orientation:
 ---------------------------------------------------------------------
 Center     Atomic      Atomic             Coordinates (Angstroms)
 Number     Number       Type             X           Y           Z
 ---------------------------------------------------------------------
      1         15           0       -0.000000   -0.000017   -0.121577
      2          1           0       -1.061113   -0.604902    0.607935
      3          1           0        1.054507   -0.616345    0.607935
      4          1           0        0.006607    1.221498    0.607786
 ---------------------------------------------------------------------

 SCF Done:  E(UHF) =  -340.358297331     A.U. after   11 cycles

 The electronic state is 2-A.
 Alpha  occ. eigenvalues --  -79.74164  -7.81821  -5.71174  -5.69987  -5.69987
 Alpha  occ. eigenvalues --   -1.21058  -0.82717  -0.82716  -0.76965
 Alpha virt. eigenvalues --   -0.10403  -0.10402   0.00445   0.29616   0.31042
 Alpha virt. eigenvalues --    0.31043   0.42983   0.93386   0.98798   0.98799
  Beta  occ. eigenvalues --  -79.73183  -7.80398  -5.69189  -5.69189  -5.67958
  Beta  occ. eigenvalues --   -1.13933  -0.80566  -0.80565
  Beta virt. eigenvalues --   -0.31393  -0.06825  -0.06823   0.01236   0.32660
  Beta virt. eigenvalues --    0.32660   0.37813   0.44656   0.93805   0.99325
  Beta virt. eigenvalues --    0.99326

 Mulliken charges and spin densities:
               1          2
     1  P    0.548797   1.093281
     2  H    0.150400  -0.031089
     3  H    0.150399  -0.031089
     4  H    0.150405  -0.031102
 Sum of Mulliken charges =   1.00000   1.00000

 Dipole moment (field-independent basis, Debye):
    X=             -0.0000    Y=              0.0000    Z=              0.1616  Tot=              0.1616
                          Isotropic Fermi Contact Couplings
        Atom                 a.u.       MegaHertz       Gauss      10(-4) cm-1
     1  P(31)              0.88114    1595.83217     569.43260     532.31231
     2  H(1)               0.00058       2.59160       0.92475       0.86446
     3  H(1)               0.00058       2.59149       0.92471       0.86443
     4  H(1)               0.00058       2.57207       0.91778       0.85795
 --------------------------------------------------------
       Center         ----  Spin Dipole Couplings  ----
                      3XX-RR        3YY-RR        3ZZ-RR
 --------------------------------------------------------

 Normal termination of Gaussian 16 at Mon Jun 17 23:31:54 2019.
