 Gaussian 16, Revision A.03,
 Gaussian 16:  EM64M-G16RevA.03 25-Dec-2016

 --------------
 #t hf/3-21g sp
 --------------
 --------
 h2s2 1e-
 --------
 Symbolic Z-matrix:
 Charge =  1 Multiplicity = 2

                         Standard orientation:
 ---------------------------------------------------------------------
 Center     Atomic      Atomic             Coordinates (Angstroms)
 Number     Number       Type             X           Y           Z
 ---------------------------------------------------------------------
      1         16           0        0.000000    1.147978    0.000000
      2         16           0       -0.000000   -1.147978    0.000000
      3          1           0        1.347868    1.235178    0.000000
      4          1           0       -1.347868   -1.235178    0.000000
 ---------------------------------------------------------------------

 SCF Done:  E(UHF) =  -791.909953397     A.U. after   12 cycles

 The electronic state is 2-BG.
 Alpha  occ. eigenvalues --  -91.67236 -91.67234  -9.26754  -9.26725  -6.94656
 Alpha  occ. eigenvalues --   -6.94640  -6.93882  -6.93857  -6.93650  -6.93638
 Alpha  occ. eigenvalues --   -1.34883  -1.22603  -0.84388  -0.82464  -0.76561
 Alpha  occ. eigenvalues --   -0.71850  -0.68228
 Alpha virt. eigenvalues --   -0.24589  -0.07485  -0.04536   0.34980   0.38928
 Alpha virt. eigenvalues --    0.39306   0.41088   0.45984   0.46171   0.54639
 Alpha virt. eigenvalues --    0.56158   0.90988   0.96312
  Beta  occ. eigenvalues --  -91.66592 -91.66589  -9.26045  -9.26017  -6.93476
  Beta  occ. eigenvalues --   -6.93438  -6.93275  -6.93273  -6.91915  -6.91898
  Beta  occ. eigenvalues --   -1.29998  -1.16693  -0.82608  -0.81510  -0.70124
  Beta  occ. eigenvalues --   -0.61722
  Beta virt. eigenvalues --   -0.31908  -0.22503  -0.06766  -0.03938   0.36007
  Beta virt. eigenvalues --    0.39540   0.41932   0.44696   0.46762   0.51116
  Beta virt. eigenvalues --    0.56593   0.56616   0.90673   0.96063

 Mulliken charges and spin densities:
               1          2
     1  S    0.289414   0.543853
     2  S    0.289414   0.543853
     3  H    0.210586  -0.043853
     4  H    0.210586  -0.043853
 Sum of Mulliken charges =   1.00000   1.00000

 Dipole moment (field-independent basis, Debye):
    X=              0.0000    Y=              0.0000    Z=              0.0000  Tot=              0.0000
                          Isotropic Fermi Contact Couplings
        Atom                 a.u.       MegaHertz       Gauss      10(-4) cm-1
     1  S(33)              0.12028      41.31241      14.74129      13.78034
     2  S(33)              0.12028      41.31241      14.74129      13.78034
     3  H(1)              -0.01263     -56.45393     -20.14417     -18.83100
     4  H(1)              -0.01263     -56.45393     -20.14417     -18.83100
 --------------------------------------------------------
       Center         ----  Spin Dipole Couplings  ----
                      3XX-RR        3YY-RR        3ZZ-RR
 --------------------------------------------------------

 Normal termination of Gaussian 16 at Tue Jun 18 23:16:16 2019.
