 Gaussian 16, Revision A.03,
 Gaussian 16:  EM64M-G16RevA.03 25-Dec-2016

 --------------------
 #t hf/3-21g opt freq
 --------------------
 ----
 h2s2
 ----
 Symbolic Z-matrix:
 Charge =  0 Multiplicity = 1

 SCF Done:  E(RHF) =  -791.440296967     A.U. after   10 cycles
 SCF Done:  E(RHF) =  -791.652589499     A.U. after   10 cycles
 SCF Done:  E(RHF) =  -791.946012451     A.U. after   10 cycles
 SCF Done:  E(RHF) =  -792.091573343     A.U. after   11 cycles
 SCF Done:  E(RHF) =  -792.228984235     A.U. after   10 cycles
 SCF Done:  E(RHF) =  -792.241911693     A.U. after    9 cycles
 SCF Done:  E(RHF) =  -792.247778842     A.U. after    9 cycles
 SCF Done:  E(RHF) =  -792.251169351     A.U. after    9 cycles
 SCF Done:  E(RHF) =  -792.251370248     A.U. after    9 cycles
 SCF Done:  E(RHF) =  -792.251382404     A.U. after    8 cycles
 SCF Done:  E(RHF) =  -792.251383929     A.U. after    7 cycles
 Optimization completed.
    -- Stationary point found.
 Normal termination of Gaussian 16 at Tue Jun 18 23:16:12 2019.

 --------------------------------------------------------------
 #T Geom=AllCheck Guess=TCheck SCRF=Check GenChk RHF/3-21G Freq
 --------------------------------------------------------------
 Structure from the checkpoint file:  "/Users/jorge/g16-scratch/Gau-812.chk"
 ----
 h2s2
 ----
 Charge =  0 Multiplicity = 1

                         Standard orientation:
 ---------------------------------------------------------------------
 Center     Atomic      Atomic             Coordinates (Angstroms)
 Number     Number       Type             X           Y           Z
 ---------------------------------------------------------------------
      1         16           0        0.000000    1.147978   -0.000000
      2         16           0       -0.000000   -1.147978   -0.000000
      3          1           0        1.347868    1.235178   -0.000000
      4          1           0       -1.347868   -1.235178    0.000000
 ---------------------------------------------------------------------

 SCF Done:  E(RHF) =  -792.251383929     A.U. after    1 cycles

 The electronic state is 1-AG.
 Alpha  occ. eigenvalues --  -91.35875 -91.35873  -8.95613  -8.95583  -6.63058
 Alpha  occ. eigenvalues --   -6.63029  -6.62869  -6.62861  -6.62502  -6.62486
 Alpha  occ. eigenvalues --   -1.04185  -0.92271  -0.56911  -0.55079  -0.45467
 Alpha  occ. eigenvalues --   -0.44123  -0.36513
 Alpha virt. eigenvalues --    0.03144   0.16353   0.19293   0.60517   0.64470
 Alpha virt. eigenvalues --    0.66227   0.67664   0.71147   0.73458   0.81405
 Alpha virt. eigenvalues --    0.82831   1.15136   1.20318

 Mulliken charges:
               1
     1  S   -0.107917
     2  S   -0.107917
     3  H    0.107917
     4  H    0.107917
 Sum of Mulliken charges =  -0.00000

 Dipole moment (field-independent basis, Debye):
    X=             -0.0000    Y=             -0.0000    Z=              0.0000  Tot=              0.0000
  Exact polarizability:  30.868   5.530  60.607  -0.000   0.000   9.271
 Approx polarizability:  26.521   2.154  47.957  -0.000   0.000   7.201
 Calling FoFJK, ICntrl=    100127 FMM=F ISym2X=1 I1Cent= 0 IOpClX= 0 NMat=1 NMatS=1 NMatT=0.
 Full mass-weighted force constant matrix:
 Low frequencies --- -267.0762    0.0031    0.0039    0.0060    4.7422    8.3879
 Low frequencies ---   34.5252  459.5783  767.9321
 ******    1 imaginary frequencies (negative Signs) ******
 Diagonal vibrational polarizability:
        0.5385385       0.2332358      40.2360447
 Diagonal vibrational hyperpolarizability:

                      1                      2                      3
                     AU                     AG                     BU
 Frequencies --   -267.0762               459.5783               767.9321
 Red. masses --      1.0386                22.9208                 1.0386
 Frc consts  --      0.0436                 2.8523                 0.3609
 IR Inten    --    106.6479                 0.0000                16.2112
 Raman Activ --      0.0000                82.5579                 0.0000

                      4                      5                      6
                     AG                     AG                     BU
 Frequencies --   1024.0673              2642.1225              2649.8637
 Red. masses --      1.0659                 1.0386                 1.0386
 Frc consts  --      0.6586                 4.2718                 4.2966
 IR Inten    --      0.0000                 0.0000                 8.3480
 Raman Activ --     34.3712               367.9994                 0.0000

    1 imaginary frequencies ignored.
 Optimization completed.
    -- Stationary point found.
 Normal termination of Gaussian 16 at Tue Jun 18 23:16:14 2019.
