 Gaussian 16, Revision A.03,
 Gaussian 16:  EM64M-G16RevA.03 25-Dec-2016

 --------------
 #t hf/3-21g sp
 --------------
 --------
 h2s2 1e+
 --------
 Symbolic Z-matrix:
 Charge = -1 Multiplicity = 2

                         Standard orientation:
 ---------------------------------------------------------------------
 Center     Atomic      Atomic             Coordinates (Angstroms)
 Number     Number       Type             X           Y           Z
 ---------------------------------------------------------------------
      1         16           0        0.000000    1.147978    0.000000
      2         16           0       -0.000000   -1.147978    0.000000
      3          1           0        1.347868    1.235178    0.000000
      4          1           0       -1.347868   -1.235178    0.000000
 ---------------------------------------------------------------------

 SCF Done:  E(UHF) =  -792.246711864     A.U. after   13 cycles

 The electronic state is 2-BU.
 Alpha  occ. eigenvalues --  -91.05784 -91.05782  -8.65851  -8.65809  -6.33932
 Alpha  occ. eigenvalues --   -6.33887  -6.33129  -6.33119  -6.32676  -6.32656
 Alpha  occ. eigenvalues --   -0.78449  -0.68025  -0.31747  -0.31627  -0.23304
 Alpha  occ. eigenvalues --   -0.19541  -0.10903  -0.02309
 Alpha virt. eigenvalues --    0.39095   0.42402   0.84267   0.87078   0.89814
 Alpha virt. eigenvalues --    0.92741   0.94922   0.97475   1.05067   1.06577
 Alpha virt. eigenvalues --    1.39426   1.44482
  Beta  occ. eigenvalues --  -91.05137 -91.05135  -8.65032  -8.65003  -6.32648
  Beta  occ. eigenvalues --   -6.32644  -6.32205  -6.32190  -6.31641  -6.31600
  Beta  occ. eigenvalues --   -0.73657  -0.63164  -0.29959  -0.27694  -0.17882
  Beta  occ. eigenvalues --   -0.15291  -0.08810
  Beta virt. eigenvalues --    0.32818   0.39954   0.42908   0.85933   0.90229
  Beta virt. eigenvalues --    0.92876   0.93756   0.96420   0.98840   1.07482
  Beta virt. eigenvalues --    1.11003   1.39249   1.44303

 Mulliken charges and spin densities:
               1          2
     1  S   -0.496330   0.543828
     2  S   -0.496330   0.543828
     3  H   -0.003670  -0.043828
     4  H   -0.003670  -0.043828
 Sum of Mulliken charges =  -1.00000   1.00000

 Dipole moment (field-independent basis, Debye):
    X=              0.0000    Y=             -0.0000    Z=              0.0000  Tot=              0.0000
                          Isotropic Fermi Contact Couplings
        Atom                 a.u.       MegaHertz       Gauss      10(-4) cm-1
     1  S(33)              0.41685     143.17685      51.08906      47.75866
     2  S(33)              0.41685     143.17685      51.08906      47.75866
     3  H(1)              -0.01181     -52.80754     -18.84304     -17.61470
     4  H(1)              -0.01181     -52.80754     -18.84304     -17.61470
 --------------------------------------------------------
       Center         ----  Spin Dipole Couplings  ----
                      3XX-RR        3YY-RR        3ZZ-RR
 --------------------------------------------------------

 Normal termination of Gaussian 16 at Tue Jun 18 23:16:15 2019.
