 Gaussian 16, Revision A.03,
 Gaussian 16:  EM64M-G16RevA.03 25-Dec-2016

 --------------------
 #t hf/3-21g opt freq
 --------------------
 ---
 lih
 ---
 Symbolic Z-matrix:
 Charge =  0 Multiplicity = 1

 SCF Done:  E(RHF) =  -7.92952461034     A.U. after   10 cycles
 SCF Done:  E(RHF) =  -7.92982848713     A.U. after    7 cycles
 SCF Done:  E(RHF) =  -7.92984258969     A.U. after    7 cycles
 Optimization completed.
    -- Stationary point found.

 1\1\GINC-JORGES-MACBOOK-AIR\FOpt\RHF\3-21G\H1Li1\JORGE\18-Jun-2019\0\\
 #t hf/3-21g opt freq\\lih\\0,1\Li,1.3726747191,4.30035,0.\H,3.01262528
 09,4.30035,0.\\Version=EM64M-G16RevA.03\State=1-SG\HF=-7.9298426\RMSD=
 3.432e-10\RMSF=8.863e-07\Dipole=-2.3559814,0.,0.\Quadrupole=-0.7696103
 ,0.3848051,0.3848051,0.,0.,0.\PG=C*V [C*(H1Li1)]\\@

 I HAVE NOT FAILED, I HAVE ONLY DISCOVERED 10,000

 Normal termination of Gaussian 16 at Tue Jun 18 23:41:36 2019.

 --------------------------------------------------------------
 #T Geom=AllCheck Guess=TCheck SCRF=Check GenChk RHF/3-21G Freq
 --------------------------------------------------------------
 Structure from the checkpoint file:  "/Users/jorge/g16-scratch/Gau-6703.chk"
 ---
 lih
 ---
 Charge =  0 Multiplicity = 1

                         Standard orientation:
 ---------------------------------------------------------------------
 Center     Atomic      Atomic             Coordinates (Angstroms)
 Number     Number       Type             X           Y           Z
 ---------------------------------------------------------------------
      1          3           0        0.000000    0.000000    0.409988
      2          1           0        0.000000    0.000000   -1.229963
 ---------------------------------------------------------------------

 SCF Done:  E(RHF) =  -7.92984258969     A.U. after    1 cycles

 The electronic state is 1-SG.
 Alpha  occ. eigenvalues --   -2.42859  -0.29653
 Alpha virt. eigenvalues --    0.00245   0.04905   0.04905   0.13050   0.18491
 Alpha virt. eigenvalues --    0.22030   0.22030   0.36197   1.44244

 Mulliken charges:
               1
     1  Li   0.221750
     2  H   -0.221750
 Sum of Mulliken charges =  -0.00000

 Dipole moment (field-independent basis, Debye):
    X=              0.0000    Y=              0.0000    Z=              5.9883  Tot=              5.9883
  Exact polarizability:  23.064   0.000  23.064   0.000   0.000  17.609
 Approx polarizability:  12.872  -0.000  12.872  -0.000  -0.000  11.404
 Calling FoFJK, ICntrl=    100127 FMM=F ISym2X=1 I1Cent= 0 IOpClX= 0 NMat=1 NMatS=1 NMatT=0.
 Full mass-weighted force constant matrix:
 Low frequencies ---   -0.0002   -0.0002   -0.0002    3.8540    3.8540 1424.9796
 Diagonal vibrational polarizability:
        0.0000000       0.0000000       2.9314875
 Diagonal vibrational hyperpolarizability:
        0.0000000       0.0000000      64.7720468
 Harmonic frequencies (cm**-1), IR intensities (KM/Mole), Raman scattering

                      1
                     SG
 Frequencies --   1424.9796
 Red. masses --      1.1293
 Frc consts  --      1.3511
 IR Inten    --    221.1934
 Raman Activ --    233.0516

 Optimization completed.
    -- Stationary point found.

 1\1\GINC-JORGES-MACBOOK-AIR\Freq\RHF\3-21G\H1Li1\JORGE\18-Jun-2019\0\\
 #T Geom=AllCheck Guess=TCheck SCRF=Check GenChk RHF/3-21G Freq\\lih\\0
 ,1\Li,1.3726747191,4.30035,0.\H,3.0126252809,4.30035,0.\\Version=EM64M
 -G16RevA.03\State=1-SG\HF=-7.9298426\RMSD=0.000e+00\RMSF=8.863e-07\Zer
 oPoint=0.0032463\Thermal=0.0056135\Dipole=-2.3559814,0.,0.\DipoleDeriv
 =0.447154,0.,0.,0.,0.7602252,0.,0.,0.,0.7602252,-0.447154,0.,0.,0.,-0.
 7602252,0.,0.,0.,-0.7602252\Polar=17.6090528,0.,23.0642123,0.,0.,23.06
 42123\PolarDeriv=-9.8799946,0.,-6.3064241,0.,0.,-6.3064241,0.,1.760264

 Normal termination of Gaussian 16 at Tue Jun 18 23:41:38 2019.
