 Gaussian 16, Revision A.03,
 Gaussian 16:  EM64M-G16RevA.03 25-Dec-2016

 --------------
 #t hf/3-21g sp
 --------------
 -------
 lih 1e+
 -------
 Symbolic Z-matrix:
 Charge = -1 Multiplicity = 2

                         Standard orientation:
 ---------------------------------------------------------------------
 Center     Atomic      Atomic             Coordinates (Angstroms)
 Number     Number       Type             X           Y           Z
 ---------------------------------------------------------------------
      1          3           0        0.000000    0.000000    0.409988
      2          1           0        0.000000    0.000000   -1.229963
 ---------------------------------------------------------------------

 SCF Done:  E(UHF) =  -7.93013020619     A.U. after   13 cycles

 The electronic state is 2-SG.
 Alpha  occ. eigenvalues --   -2.21395  -0.14825  -0.00310
 Alpha virt. eigenvalues --    0.17699   0.17699   0.25274   0.35554   0.39644
 Alpha virt. eigenvalues --    0.39644   0.52716   1.59070
  Beta  occ. eigenvalues --   -2.20908  -0.13658
  Beta virt. eigenvalues --    0.19793   0.19793   0.20194   0.25954   0.40369
  Beta virt. eigenvalues --    0.40966   0.40966   0.54408   1.59879

 Mulliken charges and spin densities:
               1          2
     1  Li  -0.699621   0.961905
     2  H   -0.300379   0.038095
 Sum of Mulliken charges =  -1.00000   1.00000

 Dipole moment (field-independent basis, Debye):
    X=              0.0000    Y=              0.0000    Z=             -2.5067  Tot=              2.5067
                          Isotropic Fermi Contact Couplings
        Atom                 a.u.       MegaHertz       Gauss      10(-4) cm-1
     1  Li(7)              0.04815      83.65803      29.85127      27.90532
     2  H(1)               0.01074      48.02151      17.13527      16.01825
 --------------------------------------------------------
       Center         ----  Spin Dipole Couplings  ----
                      3XX-RR        3YY-RR        3ZZ-RR
 --------------------------------------------------------
     1   Atom       -0.006192     -0.006192      0.012384
     2   Atom       -0.002305     -0.002305      0.004610

 Normal termination of Gaussian 16 at Tue Jun 18 23:41:39 2019.
