 Gaussian 16, Revision A.03,
 Gaussian 16:  EM64M-G16RevA.03 25-Dec-2016

 ------------------
 #t pbepbe/3-21g sp
 ------------------
 -------
 lih 1e-
 -------
 Symbolic Z-matrix:
 Charge =  1 Multiplicity = 2

                         Standard orientation:
 ---------------------------------------------------------------------
 Center     Atomic      Atomic             Coordinates (Angstroms)
 Number     Number       Type             X           Y           Z
 ---------------------------------------------------------------------
      1          3           0        0.000000    0.000000    0.411906
      2          1           0        0.000000    0.000000   -1.235718
 ---------------------------------------------------------------------

 SCF Done:  E(UPBE-PBE) =  -7.69384867099     A.U. after    6 cycles

 The electronic state is 2-SG.
 Alpha  occ. eigenvalues --   -2.18492  -0.58312
 Alpha virt. eigenvalues --   -0.24203  -0.20927  -0.20927  -0.11675  -0.07314
 Alpha virt. eigenvalues --   -0.05482  -0.05482  -0.04273   0.68204
  Beta  occ. eigenvalues --   -2.18216
  Beta virt. eigenvalues --   -0.26937  -0.19379  -0.17462  -0.17462  -0.05739
  Beta virt. eigenvalues --   -0.04377  -0.04377  -0.03472   0.17345   1.24368

 Mulliken charges and spin densities:
               1          2
     1  Li   0.849038   0.149046
     2  H    0.150962   0.850954
 Sum of Mulliken charges =   1.00000   1.00000

 Dipole moment (field-independent basis, Debye):
    X=              0.0000    Y=              0.0000    Z=              1.5679  Tot=              1.5679
                          Isotropic Fermi Contact Couplings
        Atom                 a.u.       MegaHertz       Gauss      10(-4) cm-1
     1  Li(7)              0.04564      79.28308      28.29017      26.44599
     2  H(1)               0.26479    1183.59397     422.33576     394.80445
 --------------------------------------------------------
       Center         ----  Spin Dipole Couplings  ----
                      3XX-RR        3YY-RR        3ZZ-RR
 --------------------------------------------------------
     1   Atom       -0.029556     -0.029556      0.059112
     2   Atom       -0.001927     -0.001927      0.003855

 Normal termination of Gaussian 16 at Tue Jun 18 23:33:08 2019.
