 Gaussian 16, Revision A.03,
 Gaussian 16:  EM64M-G16RevA.03 25-Dec-2016

 --------------
 #t hf/3-21g sp
 --------------
 ------------
 peroxide 1e+
 ------------
 Symbolic Z-matrix:
 Charge = -1 Multiplicity = 2

                         Standard orientation:
 ---------------------------------------------------------------------
 Center     Atomic      Atomic             Coordinates (Angstroms)
 Number     Number       Type             X           Y           Z
 ---------------------------------------------------------------------
      1          8           0        0.000000    0.736507   -0.000001
      2          8           0       -0.000000   -0.736507   -0.000001
      3          1           0       -0.957440    0.894633    0.000004
      4          1           0        0.957440   -0.894633    0.000004
 ---------------------------------------------------------------------

 SCF Done:  E(UHF) =  -149.747252669     A.U. after   15 cycles

 The electronic state is 2-B.
 Alpha  occ. eigenvalues --  -20.04799 -20.04740  -1.07223  -0.83797  -0.31647
 Alpha  occ. eigenvalues --   -0.30526  -0.20577  -0.16956  -0.04723   0.13582
 Alpha virt. eigenvalues --    0.56651   0.63436   1.54111   1.62227   2.08126
 Alpha virt. eigenvalues --    2.10979   2.24356   2.32470   2.36584   2.39364
 Alpha virt. eigenvalues --    3.27294   3.78117
  Beta  occ. eigenvalues --  -20.01831 -20.01810  -0.98181  -0.76749  -0.27645
  Beta  occ. eigenvalues --   -0.20820  -0.17547  -0.08472  -0.01017
  Beta virt. eigenvalues --    0.59153   0.61133   0.78122   1.55921   1.63073
  Beta virt. eigenvalues --    2.10301   2.17562   2.26668   2.36194   2.40335
  Beta virt. eigenvalues --    2.46871   3.33835   3.82666

 Mulliken charges and spin densities:
               1          2
     1  O   -0.665827   0.462083
     2  O   -0.665827   0.462083
     3  H    0.165827   0.037917
     4  H    0.165827   0.037917
 Sum of Mulliken charges =  -1.00000   1.00000

 Dipole moment (field-independent basis, Debye):
    X=              0.0000    Y=              0.0000    Z=              0.0000  Tot=              0.0000
                          Isotropic Fermi Contact Couplings
        Atom                 a.u.       MegaHertz       Gauss      10(-4) cm-1
     1  O(17)              0.77484    -469.70230    -167.60146    -156.67582
     2  O(17)              0.77484    -469.70230    -167.60146    -156.67582
     3  H(1)              -0.01252     -55.94519     -19.96263     -18.66131
     4  H(1)              -0.01252     -55.94519     -19.96263     -18.66131
 --------------------------------------------------------
       Center         ----  Spin Dipole Couplings  ----
                      3XX-RR        3YY-RR        3ZZ-RR
 --------------------------------------------------------

 Normal termination of Gaussian 16 at Mon Jun 17 23:13:36 2019.
