 Gaussian 16, Revision A.03,
 Gaussian 16:  EM64M-G16RevA.03 25-Dec-2016

 --------------------
 #t hf/3-21g opt freq
 --------------------
 --------
 peroxide
 --------
 Symbolic Z-matrix:
 Charge =  0 Multiplicity = 1

 SCF Done:  E(RHF) =  -149.499036400     A.U. after   10 cycles
 SCF Done:  E(RHF) =  -149.782736683     A.U. after   10 cycles
 SCF Done:  E(RHF) =  -149.906184865     A.U. after   11 cycles
 SCF Done:  E(RHF) =  -149.944667042     A.U. after   10 cycles
 SCF Done:  E(RHF) =  -149.945495119     A.U. after    9 cycles
 SCF Done:  E(RHF) =  -149.945819276     A.U. after    9 cycles
 Optimization completed.
    -- Stationary point found.
 Normal termination of Gaussian 16 at Mon Jun 17 23:13:29 2019.

 --------------------------------------------------------------
 #T Geom=AllCheck Guess=TCheck SCRF=Check GenChk RHF/3-21G Freq
 --------------------------------------------------------------
 Structure from the checkpoint file:  "/Users/jorge/g16-scratch/Gau-6787.chk"
 --------
 peroxide
 --------
 Charge =  0 Multiplicity = 1

                         Standard orientation:
 ---------------------------------------------------------------------
 Center     Atomic      Atomic             Coordinates (Angstroms)
 Number     Number       Type             X           Y           Z
 ---------------------------------------------------------------------
      1          8           0        0.722878   -0.141034   -0.000001
      2          8           0       -0.722878    0.141034   -0.000001
      3          1           0        1.061418    0.768409    0.000004
      4          1           0       -1.061418   -0.768408    0.000004
 ---------------------------------------------------------------------

 SCF Done:  E(RHF) =  -149.945819276     A.U. after    1 cycles

 The electronic state is 1-A.
 Alpha  occ. eigenvalues --  -20.50959 -20.50940  -1.44889  -1.19825  -0.69270
 Alpha  occ. eigenvalues --   -0.64077  -0.60328  -0.51010  -0.44140
 Alpha virt. eigenvalues --    0.24631   0.26800   0.34604   1.19481   1.26249
 Alpha virt. eigenvalues --    1.68198   1.76183   1.86181   1.94689   2.00991
 Alpha virt. eigenvalues --    2.03377   2.89091   3.39955

 Mulliken charges:
               1
     1  O   -0.418376
     2  O   -0.418376
     3  H    0.418376
     4  H    0.418376
 Sum of Mulliken charges =  -0.00000

 Dipole moment (field-independent basis, Debye):
    X=             -0.0000    Y=              0.0000    Z=              0.0000  Tot=              0.0000
  Exact polarizability:  15.234   2.277   8.071   0.000  -0.000   1.280
 Approx polarizability:  10.920   0.602   6.596  -0.000   0.000   0.964
 Calling FoFJK, ICntrl=    100127 FMM=F ISym2X=0 I1Cent= 0 IOpClX= 0 NMat=1 NMatS=1 NMatT=0.
 Full mass-weighted force constant matrix:
 Low frequencies ---  -23.9226  -11.3555   -0.0014   -0.0008   -0.0006   49.8045
 Low frequencies ---  100.3006 1168.1561 1278.9823
 Diagonal vibrational polarizability:
        2.4379947       0.2023549    1187.9231519
 Diagonal vibrational hyperpolarizability:
        0.0000001       0.0000003       0.0520860

                      1                      2                      3
                      A                      A                      A
 Frequencies --    100.3006              1168.1560              1278.9823
 Red. masses --      1.0671                14.1241                 1.0671
 Frc consts  --      0.0063                11.3557                 1.0284
 IR Inten    --    444.0812                 0.0000               150.9611
 Raman Activ --      0.0000                28.8893                 0.0000

                      4                      5                      6
                      A                      A                      A
 Frequencies --   1644.8363              3826.1276              3843.0024
 Red. masses --      1.1277                 1.0697                 1.0671
 Frc consts  --      1.7976                 9.2262                 9.2852
 IR Inten    --      0.0000                 0.0000                86.0627
 Raman Activ --      9.5617               158.2176                 0.0000

 Optimization completed.
    -- Stationary point found.
 Normal termination of Gaussian 16 at Mon Jun 17 23:13:31 2019.
