 Gaussian 16, Revision A.03,
 Gaussian 16:  EM64M-G16RevA.03 25-Dec-2016

 --------------
 #t hf/3-21g sp
 --------------
 ------------
 peroxide 1e-
 ------------
 Symbolic Z-matrix:
 Charge =  1 Multiplicity = 2

                         Standard orientation:
 ---------------------------------------------------------------------
 Center     Atomic      Atomic             Coordinates (Angstroms)
 Number     Number       Type             X           Y           Z
 ---------------------------------------------------------------------
      1          8           0        0.000000    0.736507   -0.000001
      2          8           0       -0.000000   -0.736507   -0.000001
      3          1           0       -0.957440    0.894633    0.000004
      4          1           0        0.957440   -0.894633    0.000004
 ---------------------------------------------------------------------

 SCF Done:  E(UHF) =  -149.560057007     A.U. after   12 cycles

 The electronic state is 2-B.
 Alpha  occ. eigenvalues --  -21.01921 -21.01906  -1.92428  -1.66628  -1.13484
 Alpha  occ. eigenvalues --   -1.09965  -1.08225  -0.95201  -0.95149
 Alpha virt. eigenvalues --   -0.18398  -0.05316   0.00095   0.83843   0.89457
 Alpha virt. eigenvalues --    1.20768   1.34049   1.40593   1.52937   1.59948
 Alpha virt. eigenvalues --    1.60443   2.43764   2.95077
  Beta  occ. eigenvalues --  -20.99283 -20.99276  -1.84984  -1.57390  -1.10287
  Beta  occ. eigenvalues --   -1.05932  -0.92442  -0.83070
  Beta virt. eigenvalues --   -0.33449  -0.14602  -0.04408   0.00941   0.83938
  Beta virt. eigenvalues --    0.89685   1.34049   1.35676   1.52196   1.54567
  Beta virt. eigenvalues --    1.61628   1.61676   2.47259   2.98560

 Mulliken charges and spin densities:
               1          2
     1  O   -0.065103   0.529969
     2  O   -0.065103   0.529969
     3  H    0.565103  -0.029969
     4  H    0.565103  -0.029969
 Sum of Mulliken charges =   1.00000   1.00000

 Dipole moment (field-independent basis, Debye):
    X=              0.0000    Y=             -0.0000    Z=              0.0000  Tot=              0.0000
                          Isotropic Fermi Contact Couplings
        Atom                 a.u.       MegaHertz       Gauss      10(-4) cm-1
     1  O(17)              0.18066    -109.51521     -39.07775     -36.53034
     2  O(17)              0.18066    -109.51521     -39.07775     -36.53034
     3  H(1)              -0.01426     -63.73271     -22.74141     -21.25894
     4  H(1)              -0.01426     -63.73271     -22.74141     -21.25894
 --------------------------------------------------------
       Center         ----  Spin Dipole Couplings  ----
                      3XX-RR        3YY-RR        3ZZ-RR
 --------------------------------------------------------

 Normal termination of Gaussian 16 at Mon Jun 17 23:13:59 2019.
